Position data for:  0.95xPtfcc

14 atoms
1  atom types
0.0000    3.7757244655500002    xlo xhi
0.0000    3.7757244655500002    ylo yhi
0.0000    3.7757244655500002    zlo zhi
Masses

1    195.084

Atoms

1 1 0.00000 0.000000 0.000000 0.000000 
2 1 0.00000 0.000000 0.000000 3.775724 
3 1 0.00000 0.000000 3.775724 0.000000 
4 1 0.00000 0.000000 3.775724 3.775724 
5 1 0.00000 3.775724 0.000000 0.000000 
6 1 0.00000 3.775724 0.000000 3.775724 
7 1 0.00000 3.775724 3.775724 0.000000 
8 1 0.00000 3.775724 3.775724 3.775724 
9 1 0.00000 0.000000 1.887862 1.887862 
10 1 0.00000 3.775724 1.887862 1.887862 
11 1 0.00000 1.887862 0.000000 1.887862 
12 1 0.00000 1.887862 3.775724 1.887862 
13 1 0.00000 1.887862 1.887862 0.000000 
14 1 0.00000 1.887862 1.887862 3.775724 
