Position data for:  0.97xPtbcc

9 atoms
1  atom types
0.0000    3.0690948793100001    xlo xhi
0.0000    3.0690948793100001    ylo yhi
0.0000    3.0690948793100001    zlo zhi
Masses

1    195.084

Atoms

1 1 0.00000 0.000000 0.000000 0.000000 
2 1 0.00000 0.000000 0.000000 3.069095 
3 1 0.00000 0.000000 3.069095 0.000000 
4 1 0.00000 0.000000 3.069095 3.069095 
5 1 0.00000 3.069095 0.000000 0.000000 
6 1 0.00000 3.069095 0.000000 3.069095 
7 1 0.00000 3.069095 3.069095 0.000000 
8 1 0.00000 3.069095 3.069095 3.069095 
9 1 0.00000 1.534547 1.534547 1.534547 
