Position data for:  0.97xPtfcc

14 atoms
1  atom types
0.0000    3.8552134016699999    xlo xhi
0.0000    3.8552134016699999    ylo yhi
0.0000    3.8552134016699999    zlo zhi
Masses

1    195.084

Atoms

1 1 0.00000 0.000000 0.000000 0.000000 
2 1 0.00000 0.000000 0.000000 3.855213 
3 1 0.00000 0.000000 3.855213 0.000000 
4 1 0.00000 0.000000 3.855213 3.855213 
5 1 0.00000 3.855213 0.000000 0.000000 
6 1 0.00000 3.855213 0.000000 3.855213 
7 1 0.00000 3.855213 3.855213 0.000000 
8 1 0.00000 3.855213 3.855213 3.855213 
9 1 0.00000 0.000000 1.927607 1.927607 
10 1 0.00000 3.855213 1.927607 1.927607 
11 1 0.00000 1.927607 0.000000 1.927607 
12 1 0.00000 1.927607 3.855213 1.927607 
13 1 0.00000 1.927607 1.927607 0.000000 
14 1 0.00000 1.927607 1.927607 3.855213 
