Position data for:  0.97Pthcp

2 atoms
1  atom types
0.0000    2.71588    xlo xhi
0.0000    2.71588    ylo yhi
0.0000    2.71588    zlo zhi
Masses

1    195.084

Atoms

1 1 0.00000 -0.000019 1.568018 1.130431 
2 1 0.00000 1.357950 0.783999 3.391294 
