Position data for:  0.93xPtfcc

14 atoms
1  atom types
0.0000    3.6962355294300000    xlo xhi
0.0000    3.6962355294300000    ylo yhi
0.0000    3.6962355294300000    zlo zhi
Masses

1    195.084

Atoms

1 1 0.00000 0.000000 0.000000 0.000000 
2 1 0.00000 0.000000 0.000000 3.696235 
3 1 0.00000 0.000000 3.696235 0.000000 
4 1 0.00000 0.000000 3.696235 3.696235 
5 1 0.00000 3.696235 0.000000 0.000000 
6 1 0.00000 3.696235 0.000000 3.696235 
7 1 0.00000 3.696235 3.696235 0.000000 
8 1 0.00000 3.696235 3.696235 3.696235 
9 1 0.00000 0.000000 1.848118 1.848118 
10 1 0.00000 3.696235 1.848118 1.848118 
11 1 0.00000 1.848118 0.000000 1.848118 
12 1 0.00000 1.848118 3.696235 1.848118 
13 1 0.00000 1.848118 1.848118 0.000000 
14 1 0.00000 1.848118 1.848118 3.696235 
