Position data for:  0.93xPtsc

8 atoms
1  atom types
0.0000    2.4862874888499999    xlo xhi
0.0000    2.4862874888499999    ylo yhi
0.0000    2.4862874888499999    zlo zhi
Masses

1    195.084

Atoms

1 1 0.00000 0.000000 0.000000 0.000000 
2 1 0.00000 0.000000 0.000000 2.486288 
3 1 0.00000 0.000000 2.486288 0.000000 
4 1 0.00000 0.000000 2.486288 2.486288 
5 1 0.00000 2.486288 0.000000 0.000000 
6 1 0.00000 2.486288 0.000000 2.486288 
7 1 0.00000 2.486288 2.486288 0.000000 
8 1 0.00000 2.486288 2.486288 2.486288 
