Position data for:  0.95xPtbcc

9 atoms
1  atom types
0.0000    3.0058145725199998    xlo xhi
0.0000    3.0058145725199998    ylo yhi
0.0000    3.0058145725199998    zlo zhi
Masses

1    195.084

Atoms

1 1 0.00000 0.000000 0.000000 0.000000 
2 1 0.00000 0.000000 0.000000 3.005815 
3 1 0.00000 0.000000 3.005815 0.000000 
4 1 0.00000 0.000000 3.005815 3.005815 
5 1 0.00000 3.005815 0.000000 0.000000 
6 1 0.00000 3.005815 0.000000 3.005815 
7 1 0.00000 3.005815 3.005815 0.000000 
8 1 0.00000 3.005815 3.005815 3.005815 
9 1 0.00000 1.502907 1.502907 1.502907 
