Position data for:  0.93Pthcp

2 atoms
1  atom types
0.0000    2.60389    xlo xhi
0.0000    2.60389    ylo yhi
0.0000    2.60389    zlo zhi
Masses

1    195.084

Atoms

1 1 0.00000 -0.000018 1.503358 1.083816 
2 1 0.00000 1.301952 0.751669 3.251447 
