Position data for:  0.95xPtsc

8 atoms
1  atom types
0.0000    2.5397560370000001    xlo xhi
0.0000    2.5397560370000001    ylo yhi
0.0000    2.5397560370000001    zlo zhi
Masses

1    195.084

Atoms

1 1 0.00000 0.000000 0.000000 0.000000 
2 1 0.00000 0.000000 0.000000 2.539756 
3 1 0.00000 0.000000 2.539756 0.000000 
4 1 0.00000 0.000000 2.539756 2.539756 
5 1 0.00000 2.539756 0.000000 0.000000 
6 1 0.00000 2.539756 0.000000 2.539756 
7 1 0.00000 2.539756 2.539756 0.000000 
8 1 0.00000 2.539756 2.539756 2.539756 
