Position data for:  0.97xPtsc

8 atoms
1  atom types
0.0000    5.79047    xlo xhi
0.0000    5.79047    ylo yhi
0.0000    5.79047    zlo zhi
Masses

1    195.084

Atoms

1 1 0.00000 0.000000 0.000000 0.000000 
2 1 0.00000 0.000000 0.000000 2.593225 
3 1 0.00000 0.000000 2.593225 0.000000 
4 1 0.00000 0.000000 2.593225 2.593225 
5 1 0.00000 2.593225 0.000000 0.000000 
6 1 0.00000 2.593225 0.000000 2.593225 
7 1 0.00000 2.593225 2.593225 0.000000 
8 1 0.00000 2.593225 2.593225 2.593225 
