Position data for:  0.95Pthcp

2 atoms
1  atom types
0.0000    2.65988    xlo xhi
0.0000    2.65988    ylo yhi
0.0000    2.65988    zlo zhi
Masses

1    195.084

Atoms

1 1 0.00000 -0.000019 1.535688 1.107123 
2 1 0.00000 1.329951 0.767834 3.321371 
