Position data for:  1.07xPthcp

2 atoms
1  atom types
0.0000    2.99587    xlo xhi
0.0000    2.99587    ylo yhi
0.0000    2.99587    zlo zhi
Masses

1    195.084

Atoms

1 1 0.00000 -0.000021 1.729670 1.246971 
2 1 0.00000 1.497944 0.864823 3.740912 
