Position data for:  1.05xPtsc

8 atoms
1  atom types
0.0000    2.8070987777299998    xlo xhi
0.0000    2.8070987777299998    ylo yhi
0.0000    2.8070987777299998    zlo zhi
Masses

1    195.084

Atoms

1 1 0.00000 0.000000 0.000000 0.000000 
2 1 0.00000 0.000000 0.000000 2.807099 
3 1 0.00000 0.000000 2.807099 0.000000 
4 1 0.00000 0.000000 2.807099 2.807099 
5 1 0.00000 2.807099 0.000000 0.000000 
6 1 0.00000 2.807099 0.000000 2.807099 
7 1 0.00000 2.807099 2.807099 0.000000 
8 1 0.00000 2.807099 2.807099 2.807099 
