Position data for:  1.03xPtbcc

9 atoms
1  atom types
0.0000    3.25893579968    xlo xhi
0.0000    3.25893579968    ylo yhi
0.0000    3.25893579968    zlo zhi
Masses

1    195.084

Atoms

1 1 0.00000 0.000000 0.000000 0.000000 
2 1 0.00000 0.000000 0.000000 3.258936 
3 1 0.00000 0.000000 3.258936 0.000000 
4 1 0.00000 0.000000 3.258936 3.258936 
5 1 0.00000 3.258936 0.000000 0.000000 
6 1 0.00000 3.258936 0.000000 3.258936 
7 1 0.00000 3.258936 3.258936 0.000000 
8 1 0.00000 3.258936 3.258936 3.258936 
9 1 0.00000 1.629468 1.629468 1.629468 
