Position data for:  1.05xPthcp

2 atoms
1  atom types
0.0000    2.93987    xlo xhi
0.0000    2.93987    ylo yhi
0.0000    2.93987    zlo zhi
Masses

1    195.084

Atoms

1 1 0.00000 -0.000021 1.697339 1.223663 
2 1 0.00000 1.469945 0.848658 3.670989 
