Position data for:  1.03xPthcp

2 atoms
1  atom types
0.0000    2.88388    xlo xhi
0.0000    2.88388    ylo yhi
0.0000    2.88388    zlo zhi
Masses

1    195.084

Atoms

1 1 0.00000 -0.000020 1.665009 1.200355 
2 1 0.00000 1.441947 0.832494 3.601065 
