Position data for:  1.05xPtfcc

14 atoms
1  atom types
0.0000    4.1731691461300002    xlo xhi
0.0000    4.1731691461300002    ylo yhi
0.0000    4.1731691461300002    zlo zhi
Masses

1    195.084

Atoms

1 1 0.00000 0.000000 0.000000 0.000000 
2 1 0.00000 0.000000 0.000000 4.173169 
3 1 0.00000 0.000000 4.173169 0.000000 
4 1 0.00000 0.000000 4.173169 4.173169 
5 1 0.00000 4.173169 0.000000 0.000000 
6 1 0.00000 4.173169 0.000000 4.173169 
7 1 0.00000 4.173169 4.173169 0.000000 
8 1 0.00000 4.173169 4.173169 4.173169 
9 1 0.00000 0.000000 2.086585 2.086585 
10 1 0.00000 4.173169 2.086585 2.086585 
11 1 0.00000 2.086585 0.000000 2.086585 
12 1 0.00000 2.086585 4.173169 2.086585 
13 1 0.00000 2.086585 2.086585 0.000000 
14 1 0.00000 2.086585 2.086585 4.173169 
