Position data for:  1.07xPtfcc

14 atoms
1  atom types
0.0000    4.25266    xlo xhi
0.0000    4.25266    ylo yhi
0.0000    4.25266    zlo zhi
Masses

1    195.084

Atoms

1 1 0.00000 0.000000 0.000000 0.000000 
2 1 0.00000 0.000000 0.000000 4.252658 
3 1 0.00000 0.000000 4.252658 0.000000 
4 1 0.00000 0.000000 4.252658 4.252658 
5 1 0.00000 4.252658 0.000000 0.000000 
6 1 0.00000 4.252658 0.000000 4.252658 
7 1 0.00000 4.252658 4.252658 0.000000 
8 1 0.00000 4.252658 4.252658 4.252658 
9 1 0.00000 0.000000 2.126329 2.126329 
10 1 0.00000 4.252658 2.126329 2.126329 
11 1 0.00000 2.126329 0.000000 2.126329 
12 1 0.00000 2.126329 4.252658 2.126329 
13 1 0.00000 2.126329 2.126329 0.000000 
14 1 0.00000 2.126329 2.126329 4.252658 
