Position data for:  1.05xPtbcc

9 atoms
1  atom types
0.0000    3.32221610647    xlo xhi
0.0000    3.32221610647    ylo yhi
0.0000    3.32221610647    zlo zhi
Masses

1    195.084

Atoms

1 1 0.00000 0.000000 0.000000 0.000000 
2 1 0.00000 0.000000 0.000000 3.322216 
3 1 0.00000 0.000000 3.322216 0.000000 
4 1 0.00000 0.000000 3.322216 3.322216 
5 1 0.00000 3.322216 0.000000 0.000000 
6 1 0.00000 3.322216 0.000000 3.322216 
7 1 0.00000 3.322216 3.322216 0.000000 
8 1 0.00000 3.322216 3.322216 3.322216 
9 1 0.00000 1.661108 1.661108 1.661108 
