Position data for:  1.07xPtsc

8 atoms
1  atom types
0.0000    2.8605673258800000    xlo xhi
0.0000    2.8605673258800000    ylo yhi
0.0000    2.8605673258800000    zlo zhi
Masses

1    195.084

Atoms

1 1 0.00000 0.000000 0.000000 0.000000 
2 1 0.00000 0.000000 0.000000 2.860567 
3 1 0.00000 0.000000 2.860567 0.000000 
4 1 0.00000 0.000000 2.860567 2.860567 
5 1 0.00000 2.860567 0.000000 0.000000 
6 1 0.00000 2.860567 0.000000 2.860567 
7 1 0.00000 2.860567 2.860567 0.000000 
8 1 0.00000 2.860567 2.860567 2.860567 
