Position data for:  1.03xPtsc

8 atoms
1  atom types
0.0000    2.7536302295800001    xlo xhi
0.0000    2.7536302295800001    ylo yhi
0.0000    2.7536302295800001    zlo zhi
Masses

1    195.084

Atoms

1 1 0.00000 0.000000 0.000000 0.000000 
2 1 0.00000 0.000000 0.000000 2.753630 
3 1 0.00000 0.000000 2.753630 0.000000 
4 1 0.00000 0.000000 2.753630 2.753630 
5 1 0.00000 2.753630 0.000000 0.000000 
6 1 0.00000 2.753630 0.000000 2.753630 
7 1 0.00000 2.753630 2.753630 0.000000 
8 1 0.00000 2.753630 2.753630 2.753630 
