Position data for:  1.03xPtfcc

14 atoms
1  atom types
0.0000    4.0936802100199996    xlo xhi
0.0000    4.0936802100199996    ylo yhi
0.0000    4.0936802100199996    zlo zhi
Masses

1    195.084

Atoms

1 1 0.00000 0.000000 0.000000 0.000000 
2 1 0.00000 0.000000 0.000000 4.093680 
3 1 0.00000 0.000000 4.093680 0.000000 
4 1 0.00000 0.000000 4.093680 4.093680 
5 1 0.00000 4.093680 0.000000 0.000000 
6 1 0.00000 4.093680 0.000000 4.093680 
7 1 0.00000 4.093680 4.093680 0.000000 
8 1 0.00000 4.093680 4.093680 4.093680 
9 1 0.00000 0.000000 2.046840 2.046840 
10 1 0.00000 4.093680 2.046840 2.046840 
11 1 0.00000 2.046840 0.000000 2.046840 
12 1 0.00000 2.046840 4.093680 2.046840 
13 1 0.00000 2.046840 2.046840 0.000000 
14 1 0.00000 2.046840 2.046840 4.093680 
