Position data for:  1.07xPtbcc

9 atoms
1  atom types
0.0000    3.3854964132599998    xlo xhi
0.0000    3.3854964132599998    ylo yhi
0.0000    3.3854964132599998    zlo zhi
Masses

1    195.084

Atoms

1 1 0.00000 0.000000 0.000000 0.000000 
2 1 0.00000 0.000000 0.000000 3.385496 
3 1 0.00000 0.000000 3.385496 0.000000 
4 1 0.00000 0.000000 3.385496 3.385496 
5 1 0.00000 3.385496 0.000000 0.000000 
6 1 0.00000 3.385496 0.000000 3.385496 
7 1 0.00000 3.385496 3.385496 0.000000 
8 1 0.00000 3.385496 3.385496 3.385496 
9 1 0.00000 1.692748 1.692748 1.692748 
