Position data for:  Ptbcc

9 atoms
1  atom types
0.0000    3.1640153394908643    xlo xhi
0.0000    3.1640153394908643    ylo yhi
0.0000    3.1640153394908643    zlo zhi
Masses

1    195.084

Atoms

1 1 0.00000 -0.00000 0.00000 0.00000 
2 1 0.00000 0.000000 0.000000 3.164015 
3 1 0.00000 0.000000 3.164015 0.000000 
4 1 0.00000 0.000000 3.164015 3.164015 
5 1 0.00000 3.164015 0.000000 0.000000 
6 1 0.00000 3.164015 0.000000 3.164015 
7 1 0.00000 3.164015 3.164015 0.000000 
8 1 0.00000 3.164015 3.164015 3.164015 
9 1 0.00000 1.582008 1.582008 1.582008 
