Position data for:  Ptfcc

14 atoms
1  atom types
0.0000    3.9768071907800220    xlo xhi
0.0000    3.9768071907800220    ylo yhi
0.0000    3.9768071907800220    zlo zhi
Masses

1    195.084

Atoms

1 1 0.00000 0.000000 0.000000 0.000000 
2 1 0.00000 0.000000 0.000000 3.976807 
3 1 0.00000 0.000000 3.976807 0.000000 
4 1 0.00000 0.000000 3.976807 3.976807 
5 1 0.00000 3.976807 0.000000 0.000000 
6 1 0.00000 3.976807 0.000000 3.976807 
7 1 0.00000 3.976807 3.976807 0.000000 
8 1 0.00000 3.976807 3.976807 3.976807 
9 1 0.00000 0.000000 1.988404 1.988404 
10 1 0.00000 3.976807 1.988404 1.988404 
11 1 0.00000 1.988404 0.000000 1.988404 
12 1 0.00000 1.988404 3.976807 1.988404 
13 1 0.00000 1.988404 1.988404 0.000000 
14 1 0.00000 1.988404 1.988404 3.976807 
