Position data for:  Pthcp

2 atoms
1  atom types
0.0000    2.79988    xlo xhi
0.0000    2.79988    ylo yhi
0.0000    2.79988    zlo zhi
Masses

1    195.084

Atoms

1 1 0.00000 -0.000020 1.616513 1.165393 
2 1 0.00000 1.399948 0.808246 3.496180 
